    4
i = 0 energy = {'iqa': {'H4': 0.0002890723452504841, 'H2': 0.001475586680739278, 'H3': 0.0015120453467220762, 'N1': 0.016142764688865156}}
N      -0.30035291       0.09907999       0.05768859
H       0.20887750       0.75317612      -0.44305314
H       0.42680418      -0.02842483       0.76019486
H      -0.33532876      -0.82383128      -0.37483031
    4
i = 1 energy = {'iqa': {'H4': 0.01829812539177182, 'H2': 0.0009983234228876788, 'H3': 0.00021183785547165563, 'N1': 0.04730567459688395}}
N      -0.20635082       0.03538038       0.17060207
H       0.11144388       0.82535747      -0.56142647
H       0.49589933      -0.10249464       0.92267810
H      -0.40099240      -0.75824321      -0.53185370
    4
i = 2 energy = {'iqa': {'H4': 0.03245775913684504, 'H2': 0.1171181460532804, 'H3': 0.1303090529315213, 'N1': 0.031906527637017915}}
N      -0.17653556      -0.04290245       0.29998896
H      -0.22161996       0.84407576      -0.10150250
H       0.78004691      -0.34156788       0.34320142
H      -0.38189139      -0.45960543      -0.54168787
    4
i = 3 energy = {'iqa': {'H4': 0.0369168250538072, 'H2': 0.018735606000316606, 'H3': 0.06755934252874911, 'N1': 0.01929652028426813}}
N      -0.05491406      -0.24235743       0.28047244
H      -0.25609089       0.75592191       0.70503467
H       0.92139030      -0.13556297      -0.28273315
H      -0.61038535      -0.37800152      -0.70277396
    4
i = 4 energy = {'iqa': {'H4': 0.0015082790652537915, 'H2': 0.00824064538577506, 'H3': 0.0221557995525274, 'N1': 0.04911775147626951}}
N       0.04342065      -0.30957908       0.11326569
H      -0.20850736       0.45601651       0.79166521
H       0.96546272      -0.00560368      -0.42161284
H      -0.80037602      -0.14083375      -0.48331804
    4
i = 5 energy = {'iqa': {'H4': 0.015670894098469165, 'H2': 0.057802476818035624, 'H3': 0.04516998702219654, 'N1': 0.005980930088355383}}
N      -0.04377422      -0.19724160      -0.22424689
H       0.37355971      -0.41177258       0.65703813
H       0.63208506       0.47992787      -0.34407697
H      -0.96187055       0.12908631      -0.08871427
    4
i = 6 energy = {'iqa': {'H4': 0.04329458660978623, 'H2': 0.03979763362639129, 'H3': 0.061338829809317916, 'N1': 0.14366800494558057}}
N      -0.04680058      -0.13163044      -0.24381482
H       0.42044420      -0.54460753       0.64268902
H       0.72644414       0.57914194      -0.39264135
H      -1.10008776       0.09709603      -0.00623286
    4
i = 7 energy = {'iqa': {'H4': 0.01950233418519655, 'H2': 0.00671285131809697, 'H3': 0.0008923592196205821, 'N1': 0.009030309371856273}}
N      -0.08366603      -0.07558119      -0.17044065
H       0.46779927      -0.81960776       0.20546493
H       0.51525322       0.72328710      -0.32173924
H      -0.89938647       0.17190185       0.28671496
    4
i = 8 energy = {'iqa': {'H4': 0.00033354385274981147, 'H2': 0.0026160462826454174, 'H3': 0.0026067259624878796, 'N1': 0.006122712136203455}}
N      -0.16128253       0.05748973      -0.14454496
H       0.31802386      -0.80392697      -0.42509832
H       0.47885714       0.86221868      -0.14134115
H      -0.63559847      -0.11578144       0.71098442
    4
i = 9 energy = {'iqa': {'H4': 0.00011066077425895182, 'H2': 0.00021382746650366118, 'H3': 0.0007008449573925725, 'N1': 0.00520496663019337}}
N      -0.24051624       0.12410481      -0.06888397
H       0.09831259      -0.53233973      -0.76893139
H       0.47713514       0.82678211       0.04625316
H      -0.33493149      -0.41854719       0.79156221
    4
i = 10 energy = {'iqa': {'H4': 0.0015765523951054479, 'H2': 0.022041990905903107, 'H3': 0.0252794919404065, 'N1': 0.024235753607571093}}
N      -0.26588643       0.15364210      -0.11719695
H       0.00698444      -0.55701406      -0.81054259
H       0.45104719       0.80352849       0.19139914
H      -0.19214519      -0.40015651       0.73634041
    4
i = 11 energy = {'iqa': {'H4': 0.00025161524631663485, 'H2': 0.0007398744413502997, 'H3': 7.592688667201053e-05, 'N1': 0.04462004394229266}}
N      -0.23975633       0.09272710       0.01317860
H      -0.08148188      -0.29869705      -0.92482371
H       0.50938954       0.82380813       0.15929126
H      -0.18815133      -0.61783818       0.75235385
    4
i = 12 energy = {'iqa': {'H4': 0.009340947831247379, 'H2': 0.00796780792638972, 'H3': 0.006669275910208677, 'N1': 0.006280267312257242}}
N      -0.27375540       0.08764174       0.06522695
H      -0.04105449      -0.22513088      -0.92477973
H       0.52778319       0.81526875       0.08931053
H      -0.21297330      -0.67777961       0.77024225
    4
i = 13 energy = {'iqa': {'H4': 0.013622402461183404, 'H2': 0.011180839577685654, 'H3': 0.0017997249003266153, 'N1': 0.034978459961956074}}
N      -0.27664730       0.16359015       0.03860232
H      -0.25152685      -0.21076456      -0.89766184
H       0.49256418       0.71015434       0.30040358
H       0.03560998      -0.66297993       0.55865593
    4
i = 14 energy = {'iqa': {'H4': 0.0015961377180886808, 'H2': 0.018637542772660762, 'H3': 0.021680093057928895, 'N1': 0.03205416474309517}}
N      -0.23069441       0.13757347       0.08624117
H      -0.44349409      -0.06047413      -0.92051749
H       0.56734828       0.73210806       0.40624310
H       0.10684022      -0.80920739       0.42803321
    4
i = 15 energy = {'iqa': {'H4': 0.02893509899828469, 'H2': 0.029797324749869205, 'H3': 0.016780953200709957, 'N1': 0.0348639808366716}}
N      -0.27831050       0.04109090       0.21409585
H      -0.33312890       0.18815113      -0.82260027
H       0.51798832       0.71111441       0.23173611
H       0.09345107      -0.94035644       0.37676830
    4
i = 16 energy = {'iqa': {'H4': 0.0007973207233382115, 'H2': 0.0029978968746319154, 'H3': 0.015180424300006705, 'N1': 0.013282205236121782}}
N      -0.20456147       0.07430705       0.15900155
H      -0.56175564       0.17879685      -0.76951594
H       0.54144327       0.61787503       0.46854485
H       0.22487385      -0.87097893       0.14196954
    4
i = 17 energy = {'iqa': {'H4': 0.0030377525568029465, 'H2': 0.07876225067272472, 'H3': 0.01906694151509025, 'N1': 0.08363513286425202}}
N      -0.11829352      -0.12533066       0.20286021
H      -0.87490997       0.46298838      -0.36708051
H       0.68891073       0.46060218       0.72619570
H       0.30429276      -0.79825991      -0.56197540
    4
i = 18 energy = {'iqa': {'H4': 0.0167121417594003, 'H2': 0.1185902623669527, 'H3': 0.0020135654237892183, 'N1': 0.12225097610075425}}
N      -0.11969625      -0.11986930       0.20651369
H      -0.89028910       0.46452731      -0.36195149
H       0.69628497       0.45299037       0.73622672
H       0.31370039      -0.79764837      -0.58078893
    4
i = 19 energy = {'iqa': {'H4': 0.013818511551037018, 'H2': 0.028112649356742427, 'H3': 0.001687338099807333, 'N1': 0.05902694349025448}}
N      -0.11758192      -0.27073007       0.16335992
H      -0.70327314       0.47306959      -0.03260221
H       0.52541983       0.28904326       0.60277411
H       0.29543523      -0.49138278      -0.73353182
    4
i = 20 energy = {'iqa': {'H4': 0.024028490404021375, 'H2': 0.0004355413108486989, 'H3': 0.017227119579105128, 'N1': 0.021975435162538838}}
N      -0.03676220      -0.25369420      -0.09387273
H      -0.83449521       0.17633609       0.51114663
H       0.84935885      -0.41605291       0.48225416
H       0.02189856       0.49341103      -0.89952805
    4
i = 21 energy = {'iqa': {'H4': 0.003136649308374022, 'H2': 0.0049476574954622895, 'H3': 0.018005730068542936, 'N1': 0.04581500290780582}}
N      -0.05172548      -0.23390705      -0.05056545
H      -0.83675266       0.10228974       0.53720149
H       0.84295912      -0.45152115       0.41771164
H       0.04551901       0.58313846      -0.90434768
    4
i = 22 energy = {'iqa': {'H4': 0.009342559761128489, 'H2': 0.00996049406694075, 'H3': 0.02533706968656362, 'N1': 0.008958333318550117}}
N      -0.16062473      -0.23509844      -0.23013341
H      -0.65968449      -0.08771690       0.63658900
H       0.77943319      -0.53684889       0.05432838
H       0.04087603       0.85966423      -0.46078396
    4
i = 23 energy = {'iqa': {'H4': 0.0049338779200945315, 'H2': 0.0007057469940358512, 'H3': 0.009911805857195971, 'N1': 0.014022835393933026}}
N      -0.28008455       0.02192104      -0.16316629
H      -0.40443109      -0.55210734       0.68518636
H       0.55265596      -0.34559735      -0.61654562
H       0.13185967       0.87578365       0.09452555
    4
i = 24 energy = {'iqa': {'H4': 0.0016169667185972993, 'H2': 0.00027912683566402516, 'H3': 7.932936857076542e-05, 'N1': 0.005698473072602373}}
N      -0.25472293       0.03970315      -0.09858191
H      -0.33911431      -0.69634118       0.60130416
H       0.42156961      -0.22529128      -0.80289091
H       0.17226763       0.88192930       0.30016866
    4
i = 25 energy = {'iqa': {'H4': 0.00017525845707071946, 'H2': 0.000363899680849131, 'H3': 0.012413301604995026, 'N1': 0.002700010549253714}}
N      -0.24390660       0.10013530      -0.14944460
H      -0.25688201      -0.66331922       0.57774891
H       0.38009933      -0.25171340      -0.91059952
H       0.12068929       0.81489733       0.48229521
    4
i = 26 energy = {'iqa': {'H4': 0.006790854946239932, 'H2': 0.01154596610577593, 'H3': 0.0022070610452867056, 'N1': 0.02247833715871166}}
N      -0.26896852       0.10297255      -0.13545193
H      -0.28038614      -0.69127586       0.58332957
H       0.40315776      -0.20538966      -0.88953244
H       0.14619691       0.79369298       0.44165480
    4
i = 27 energy = {'iqa': {'H4': 0.008270663330884671, 'H2': 0.008045725948872774, 'H3': 0.0009697657797373532, 'N1': 0.02873391047303066}}
N      -0.32092580       0.05528307      -0.08635066
H      -0.35691928      -0.77634873       0.48128072
H       0.42229064      -0.11800311      -0.76722059
H       0.25555444       0.83906877       0.37229054
    4
i = 28 energy = {'iqa': {'H4': 0.004022473285395515, 'H2': 0.0006407835271973389, 'H3': 0.008586430834774648, 'N1': 0.01782190925748784}}
N      -0.28428195       0.12902225      -0.10641602
H      -0.23470114      -0.78094844       0.37551939
H       0.29906801      -0.06639142      -0.91942500
H       0.21991508       0.71831760       0.65032163
    4
i = 29 energy = {'iqa': {'H4': 0.004583331740747466, 'H2': 0.0026629938534940495, 'H3': 1.2386925676963167e-05, 'N1': 0.004242182610794359}}
N      -0.28142097       0.15740448      -0.10602064
H      -0.21535526      -0.78473300       0.41262560
H       0.30526610      -0.04818357      -0.94907296
H       0.19151013       0.67551209       0.64246800
    4
i = 30 energy = {'iqa': {'H4': 0.005858759679993292, 'H2': 0.013141373960147392, 'H3': 0.009728431315240002, 'N1': 0.007572958113896898}}
N      -0.27084003       0.10217891      -0.00415997
H      -0.38113330      -0.93001524       0.30981930
H       0.38542505       0.12904341      -0.83727051
H       0.26654828       0.69879292       0.53161118
    4
i = 31 energy = {'iqa': {'H4': 0.003155214276391846, 'H2': 0.00041460819075537933, 'H3': 0.0038476049199119974, 'N1': 0.013644082067155026}}
N      -0.26358617       0.09602634      -0.06124357
H      -0.35460656      -0.83720077       0.22933464
H       0.28578033       0.17722032      -0.90645465
H       0.33241240       0.56395411       0.73836359
    4
i = 32 energy = {'iqa': {'H4': 0.01107911168950239, 'H2': 0.017290644120039788, 'H3': 0.014409468139835143, 'N1': 0.017229080820094275}}
N      -0.24146786       0.17229860      -0.02527103
H      -0.23746338      -0.84219454       0.14319417
H       0.18049440       0.29069607      -0.93094245
H       0.29843683       0.37919987       0.81301931
    4
i = 33 energy = {'iqa': {'H4': 0.003927339436352061, 'H2': 0.0005419759048053852, 'H3': 0.0015289316889657584, 'N1': 0.0017750798996513863}}
N      -0.24948934       0.08973700       0.11661980
H      -0.39267037      -0.81503852      -0.21835604
H       0.15632760       0.52040703      -0.72178214
H       0.48583211       0.20489449       0.82351838
    4
i = 34 energy = {'iqa': {'H4': 0.017240801529263442, 'H2': 6.608658188385574e-06, 'H3': 0.0156582436737183, 'N1': 0.00988738132277986}}
N      -0.26345634       0.12000136       0.16087488
H      -0.27602245      -0.68615165      -0.34395781
H       0.01734192       0.81446977      -0.50495665
H       0.52213686      -0.24831949       0.68803958
    4
i = 35 energy = {'iqa': {'H4': 0.003850730975199029, 'H2': 0.02609492070028673, 'H3': 0.012005787810305755, 'N1': 0.0589406588801415}}
N      -0.18701663      -0.02555484       0.13226197
H      -0.49585973      -0.64652313      -0.49950901
H       0.07136222       0.81944363      -0.34237615
H       0.61151414      -0.14736567       0.70962321
    4
i = 36 energy = {'iqa': {'H4': 0.11646930427728223, 'H2': 2.8852364195614426e-05, 'H3': 0.003649360754931265, 'N1': 0.021645721761106535}}
N      -0.25851325      -0.04997463       0.24063931
H      -0.49068731      -0.46387072      -0.62034344
H       0.12798565       0.83533171      -0.15057257
H       0.62121491      -0.32148637       0.53027670
    4
i = 37 energy = {'iqa': {'H4': 0.102763312561768, 'H2': 0.04454624746575757, 'H3': 0.020912219668674556, 'N1': 0.0566326337292165}}
N      -0.23258583       0.01695404       0.22958459
H      -0.47131327      -0.39434494      -0.70411501
H      -0.03754939       0.97021830      -0.09219212
H       0.74144851      -0.59282738       0.56672254
    4
i = 38 energy = {'iqa': {'H4': 0.008050983974928913, 'H2': 0.022834072172201396, 'H3': 0.007129952002271479, 'N1': 0.012993204744370962}}
N      -0.19589999      -0.07474896       0.15464646
H      -0.49340969      -0.04506451      -0.78951785
H       0.00923366       0.76322780       0.65268652
H       0.68007602      -0.64341433      -0.01781512
    4
i = 39 energy = {'iqa': {'H4': 0.01017597381735626, 'H2': 0.0019318796486928207, 'H3': 0.008917239980433775, 'N1': 0.023832870008618563}}
N      -0.22919604      -0.22039736       0.17611783
H      -0.50712747       0.22623737      -0.79375905
H       0.01677447       0.67810578       0.70084522
H       0.71954904      -0.68394579      -0.08320400
    4
i = 40 energy = {'iqa': {'H4': 0.004883943941973662, 'H2': 0.015809211879532378, 'H3': 0.0021804306936914265, 'N1': 0.020654609859818034}}
N      -0.19689341      -0.20876260       0.17482371
H      -0.47487046       0.20377911      -0.81999269
H       0.03049068       0.63853017       0.74245903
H       0.64127319      -0.63354668      -0.09729006
    4
i = 41 energy = {'iqa': {'H4': 0.007036724982545701, 'H2': 0.014910316166533343, 'H3': 0.010611307948306637, 'N1': 0.005843717562222582}}
N      -0.19423242      -0.14533409       0.14053722
H      -0.46207366       0.16834374      -0.76671140
H       0.01761225       0.58074257       0.78684403
H       0.63869384      -0.60375222      -0.16066985
    4
i = 42 energy = {'iqa': {'H4': 0.00259302996838882, 'H2': 0.005634468147860218, 'H3': 0.0012599935131139535, 'N1': 0.001330158081410336}}
N      -0.18601284      -0.20321170       0.05625986
H      -0.55188270       0.51836179      -0.70468003
H       0.07715120       0.25670068       0.95037726
H       0.66074434      -0.57185077      -0.30195709
    4
i = 43 energy = {'iqa': {'H4': 0.0016497231152654826, 'H2': 0.002111722324063463, 'H3': 0.004837768580617427, 'N1': 0.009737663479500239}}
N      -0.17877847      -0.17478943       0.01412630
H      -0.55482283       0.60234100      -0.60165711
H       0.05772990       0.14231442       0.95215810
H       0.67587140      -0.56986599      -0.36462727
    4
i = 44 energy = {'iqa': {'H4': 0.003470234122617679, 'H2': 1.0789355419203466e-05, 'H3': 0.012723648896883424, 'N1': 0.0016161071075811737}}
N      -0.25032907      -0.24258508       0.01261487
H      -0.49748983       0.64795588      -0.54369763
H       0.07327374       0.04750233       0.94751248
H       0.67454516      -0.45287313      -0.41642972
    4
i = 45 energy = {'iqa': {'H4': 0.013810352914002368, 'H2': 0.046840605182677214, 'H3': 0.06019174271582664, 'N1': 0.022798627527127708}}
N      -0.20279695      -0.18515952      -0.07974190
H      -0.39013509       0.92295178      -0.11293515
H      -0.00094092      -0.62491370       0.83901550
H       0.59387297      -0.11287857      -0.64633846
    4
i = 46 energy = {'iqa': {'H4': 0.0004100304936477019, 'H2': 0.004739717790214878, 'H3': 0.00036920343074664313, 'N1': 0.0008546670592811405}}
N      -0.21976483      -0.12733895      -0.18753971
H      -0.35440719       0.89623204       0.19333893
H      -0.06239208      -0.69455378       0.66943941
H       0.63656410      -0.07433931      -0.67523864
    4
i = 47 energy = {'iqa': {'H4': 0.026364021042262722, 'H2': 0.07261252656167765, 'H3': 0.03527793664965167, 'N1': 0.02098187456697061}}
N      -0.24569714      -0.16586294      -0.18286403
H      -0.30335790       0.93760900       0.17991813
H      -0.07581540      -0.76816592       0.64846572
H       0.62487045      -0.00358015      -0.64551982
    4
i = 48 energy = {'iqa': {'H4': 0.022786456520481228, 'H2': 0.07976454923187488, 'H3': 0.03238900902424118, 'N1': 0.01924436775993429}}
N      -0.25531336      -0.16951962      -0.17828337
H      -0.29473619       0.93292460       0.17606649
H      -0.08084945      -0.77877794       0.64376234
H       0.63089900       0.01537297      -0.64154546
    4
i = 49 energy = {'iqa': {'H4': 0.06431845028043781, 'H2': 0.039148460381327695, 'H3': 0.025198520406965047, 'N1': 0.04296005093884559}}
N      -0.27843910       0.03910718      -0.23147177
H      -0.22910416       0.62118112       0.59019549
H      -0.07398332      -0.80737499       0.31076893
H       0.58152659       0.14708669      -0.66949265
    4
i = 50 energy = {'iqa': {'H4': 0.03528367591969939, 'H2': 0.036921555577731024, 'H3': 0.041339828780566176, 'N1': 0.014722854238810064}}
N      -0.28329274       0.08791689      -0.14956716
H      -0.06690052       0.46663343       0.78387144
H      -0.19405451      -0.89600602      -0.11379748
H       0.54424777       0.34145571      -0.52050678
    4
i = 51 energy = {'iqa': {'H4': 0.16587890092041355, 'H2': 0.016592096235417873, 'H3': 0.041255390029596564, 'N1': 0.11604225709449903}}
N      -0.34870684       0.16905316      -0.11659389
H      -0.16906072       0.39424005       0.91627280
H      -0.14354518      -0.91295035      -0.12216327
H       0.66131274       0.34965713      -0.67751564
    4
i = 52 energy = {'iqa': {'H4': 0.04671361696458871, 'H2': 0.007584563737664618, 'H3': 0.018521667837653088, 'N1': 0.030623188623815398}}
N      -0.27573280       0.17785371      -0.11375023
H      -0.14911888       0.28736732       0.84552485
H      -0.15334785      -0.86636885      -0.09861094
H       0.57819953       0.40114782      -0.63316368
    4
i = 53 energy = {'iqa': {'H4': 0.0027713916303396995, 'H2': 0.028882806149973034, 'H3': 0.0056228209012100785, 'N1': 0.0014862233148613606}}
N      -0.22036046       0.12105456      -0.14908135
H      -0.08496821       0.25515806       0.91031442
H      -0.23432448      -0.85542484      -0.15322799
H       0.53965316       0.47921223      -0.60800508
    4
i = 54 energy = {'iqa': {'H4': 0.0025419172445440776, 'H2': 0.0031723756006276933, 'H3': 0.014600525220198281, 'N1': 0.07764153678067705}}
N      -0.21378784       0.15470514       0.02004884
H      -0.06275444       0.12470392       1.00175952
H      -0.30602161      -0.86135024      -0.37758416
H       0.58256389       0.58194118      -0.64422420
    4
i = 55 energy = {'iqa': {'H4': 0.003189825362280131, 'H2': 0.009957016995626435, 'H3': 0.009410380554575708, 'N1': 0.014316327036496563}}
N      -0.28043731       0.15992725       0.05465499
H       0.06835369      -0.04769538       0.99791765
H      -0.35788921      -0.67131182      -0.55422678
H       0.56997283       0.55907996      -0.49834586
    4
i = 56 energy = {'iqa': {'H4': 0.008201158620846197, 'H2': 0.0007603561326974391, 'H3': 0.0237459819139317, 'N1': 0.00831465537334988}}
N      -0.26099240       0.10198698       0.19464717
H       0.29345777      -0.59321056       0.63633063
H      -0.51617760      -0.21386675      -0.72796436
H       0.48371223       0.70509033      -0.10301344
    4
i = 57 energy = {'iqa': {'H4': 0.019032122108415636, 'H2': 0.004970843450787378, 'H3': 0.004628538234883453, 'N1': 0.026949393754098563}}
N      -0.25939839       0.12386426       0.20766971
H       0.31842207      -0.75858789       0.64377879
H      -0.52042354      -0.16923085      -0.76454366
H       0.46139986       0.80395448      -0.08690485
    4
i = 58 energy = {'iqa': {'H4': 0.010641814160835645, 'H2': 0.009536674263649632, 'H3': 0.00800172774024894, 'N1': 0.0008970776756076903}}
N      -0.18520106       0.10961551       0.12105609
H       0.32876177      -0.78761511       0.51158675
H      -0.64038344      -0.22983431      -0.75031597
H       0.49682272       0.90783390       0.11767314
    4
i = 59 energy = {'iqa': {'H4': 0.004022600811548128, 'H2': 0.001981576495253112, 'H3': 0.0014258154992333365, 'N1': 0.016997285975655807}}
N      -0.22802863       0.05355480       0.22142774
H       0.34903639      -0.76954423       0.35609179
H      -0.54680776      -0.11012055      -0.74986691
H       0.42580000       0.82610999       0.17234738
    4
i = 60 energy = {'iqa': {'H4': 0.0011398370621123653, 'H2': 0.10367979228576622, 'H3': 0.015777433287720626, 'N1': 0.03259337423788161}}
N      -0.27553006       0.08734550       0.24374124
H       0.42391759      -0.82258216       0.25871071
H      -0.57077598      -0.08624191      -0.74356742
H       0.42238845       0.82147857       0.24111547
    4
i = 61 energy = {'iqa': {'H4': 0.0061725810525187115, 'H2': 0.0003979130772566455, 'H3': 0.008027644531399104, 'N1': 0.0005381921281664148}}
N      -0.23939240      -0.01306329       0.22852835
H       0.38452219      -0.77970490       0.32645300
H      -0.58106411       0.01391980      -0.75112114
H       0.43593432       0.77884839       0.19613978
    4
i = 62 energy = {'iqa': {'H4': 0.0021574569470331475, 'H2': 5.986820649946601e-05, 'H3': 0.0007174398598828088, 'N1': 0.018259848976388823}}
N      -0.19089333       0.01276385       0.18626303
H       0.38864641      -0.86571571       0.20844005
H      -0.63157468       0.04950143      -0.75675720
H       0.43382160       0.80345044       0.36205412
    4
i = 63 energy = {'iqa': {'H4': 1.729691501504045e-05, 'H2': 0.019279302486076032, 'H3': 0.0007890797444461543, 'N1': 0.009719074968497644}}
N      -0.21356070       0.01312234       0.21119612
H       0.42017000      -0.87689786       0.02841949
H      -0.59259593       0.10460015      -0.73834346
H       0.38598663       0.75917537       0.49872785
    4
i = 64 energy = {'iqa': {'H4': 0.003590838976126493, 'H2': 0.0028594855407522886, 'H3': 0.003717553158104684, 'N1': 0.006506051028252116}}
N      -0.18560506      -0.08247024       0.14234034
H       0.45546058      -0.92195317       0.10351448
H      -0.62316262       0.28130363      -0.71893873
H       0.35330710       0.72311978       0.47308391
    4
i = 65 energy = {'iqa': {'H4': 0.003828727958958785, 'H2': 0.00013902514007953096, 'H3': 0.0021464163461552555, 'N1': 0.017393278792946915}}
N      -0.23901891      -0.05142474       0.21842088
H       0.41289329      -0.81849203      -0.08840112
H      -0.55479660       0.18176293      -0.74661808
H       0.38092221       0.68815384       0.61659832
    4
i = 66 energy = {'iqa': {'H4': 0.048457733166989134, 'H2': 0.03018566999082008, 'H3': 0.009284614389608517, 'N1': 0.11087210953139558}}
N      -0.17399571      -0.15448416       0.07712063
H       0.51630417      -0.48967122      -0.46188333
H      -0.55198564       0.46835989      -0.64051047
H       0.20967718       0.17579549       1.02527317
    4
i = 67 energy = {'iqa': {'H4': 0.048631989534087615, 'H2': 0.009380137902624788, 'H3': 0.01230152025834941, 'N1': 0.08075720128183411}}
N      -0.19995722      -0.22037956      -0.09016993
H       0.75596446      -0.07315950      -0.63534188
H      -0.57725284       0.78443517      -0.22594678
H       0.02124560      -0.49089611       0.95145860
    4
i = 68 energy = {'iqa': {'H4': 0.008770091533537154, 'H2': 0.012661031000757897, 'H3': 0.01641713257051576, 'N1': 0.013981343737535007}}
N      -0.12028240      -0.06279645      -0.21366969
H       0.81227468       0.18139130      -0.60252321
H      -0.69893974       0.74553235       0.24202010
H       0.00694746      -0.86412719       0.57417280
    4
i = 69 energy = {'iqa': {'H4': 0.05536553361131053, 'H2': 0.15468906062307755, 'H3': 0.022323981701591354, 'N1': 0.2684135108123874}}
N      -0.19462041       0.20280762      -0.27615564
H       0.84996268       0.42699727      -0.23119028
H      -0.63770644       0.32739067       0.64644251
H      -0.01763583      -0.95719555      -0.13909659
    4
i = 70 energy = {'iqa': {'H4': 0.0019605024941464645, 'H2': 0.021103630796259248, 'H3': 0.06424500741738862, 'N1': 0.0522050516803974}}
N      -0.14781765       0.15689262      -0.23437014
H       0.80322548       0.53164774      -0.06362301
H      -0.54610911       0.31346055       0.73365412
H      -0.10929871      -1.00200092      -0.43566097
    4
i = 71 energy = {'iqa': {'H4': 0.05778967134473934, 'H2': 0.008763272328169345, 'H3': 0.008501023120393407, 'N1': 0.019857483422361558}}
N      -0.16638678       0.23212377      -0.18249441
H       0.76294415       0.39572454       0.07255354
H      -0.48765132      -0.05164707       0.76677081
H      -0.10890605      -0.57620124      -0.65682995
    4
i = 72 energy = {'iqa': {'H4': 0.009532133778029622, 'H2': 0.005808495156535691, 'H3': 0.0037311373915260015, 'N1': 0.018767813367222753}}
N      -0.17814509       0.25210594      -0.05914163
H       0.80525701       0.40977448       0.23493104
H      -0.44865359      -0.41694979       0.72612776
H      -0.17845832      -0.24493064      -0.90191718
    4
i = 73 energy = {'iqa': {'H4': 0.00012656495475989434, 'H2': 0.001247395833008877, 'H3': 0.018519708366002263, 'N1': 0.006731682983406173}}
N      -0.22912015       0.27265397       0.08582045
H       0.86009244       0.46458539       0.23228191
H      -0.48432930      -0.64943115       0.60041572
H      -0.14664299      -0.08780820      -0.91851808
    4
i = 74 energy = {'iqa': {'H4': 0.0017845557172474246, 'H2': 0.00126226007543791, 'H3': 0.005086555473167499, 'N1': 0.030880867711449118}}
N      -0.15935736       0.16228481       0.13225823
H       0.76365981       0.40587032       0.35889584
H      -0.34436235      -0.77027847       0.39864895
H      -0.25994010       0.20212334      -0.88980302
    4
i = 75 energy = {'iqa': {'H4': 0.00248906178016739, 'H2': 0.000852788640231809, 'H3': 0.009665014497277247, 'N1': 0.021689039528558638}}
N      -0.21435372       0.19044984       0.18173132
H       0.80424196       0.43262629       0.34950252
H      -0.34532000      -0.90288461       0.33235014
H      -0.24456825       0.27980848      -0.86358398
    4
i = 76 energy = {'iqa': {'H4': 0.00014180854478252196, 'H2': 0.0009828192836599792, 'H3': 0.0029199599228522215, 'N1': 0.0011807594116065008}}
N      -0.18662944       0.12906406       0.22474951
H       0.80854157       0.32449192       0.39392296
H      -0.31991085      -0.90689132       0.19228867
H      -0.30200128       0.45333534      -0.81096113
    4
i = 77 energy = {'iqa': {'H4': 0.007583265942871668, 'H2': 0.002829544459255534, 'H3': 0.010302650403955753, 'N1': 0.004177678862066638}}
N      -0.18506792       0.10246970       0.24851332
H       0.82069119       0.30826526       0.42879773
H      -0.33961520      -0.95755096       0.10507943
H      -0.29600807       0.54681601      -0.78239048
    4
i = 78 energy = {'iqa': {'H4': 0.004290779706028334, 'H2': 0.004226140366812909, 'H3': 0.016357235955788373, 'N1': 0.02011441573845774}}
N      -0.20348422       0.11772435       0.25280714
H       0.83140835       0.18070434       0.47106800
H      -0.25375763      -0.90306631       0.02790303
H      -0.37416650       0.60463762      -0.75177817
    4
i = 79 energy = {'iqa': {'H4': 0.004046232454160266, 'H2': 0.0013155287316147558, 'H3': 0.006532105318560054, 'N1': 0.015019601379936498}}
N      -0.14477585       0.05191769       0.17207844
H       0.82929060       0.18911356       0.45675292
H      -0.32935826      -0.87244303      -0.04928840
H      -0.35515648       0.63141179      -0.57954296
    4
i = 80 energy = {'iqa': {'H4': 0.006767235037809585, 'H2': 0.00045752606938299375, 'H3': 0.004961504604753997, 'N1': 0.016367456715536893}}
N      -0.13880938       0.08645986       0.16936166
H       0.80626759       0.16620128       0.44860549
H      -0.30586612      -0.88367760      -0.07432642
H      -0.36159208       0.63101646      -0.54364072
    4
i = 81 energy = {'iqa': {'H4': 0.026115215726149454, 'H2': 0.0023084252003599363, 'H3': 0.00024973825002518605, 'N1': 0.0019716802764591047}}
N      -0.12446003       0.02634809       0.17681220
H       0.85020203       0.03553482       0.45163288
H      -0.35792334      -0.84186554      -0.27096873
H      -0.36781865       0.77998264      -0.35747635
    4
i = 82 energy = {'iqa': {'H4': 0.03340462489536623, 'H2': 0.05531914135705901, 'H3': 0.06347062771727738, 'N1': 0.1527472328714205}}
N      -0.16868574      -0.11684599       0.21665131
H       0.90502965      -0.04522011       0.45692726
H      -0.45111730      -0.79730825      -0.48537351
H      -0.28522661       0.95937435      -0.18820507
    4
i = 83 energy = {'iqa': {'H4': 0.011267050893760261, 'H2': 0.011469267355026005, 'H3': 0.03202515958123231, 'N1': 0.02480525040605323}}
N      -0.09914938      -0.01436874       0.20569554
H       0.85466548      -0.25328852       0.43977882
H      -0.32127472      -0.65897950      -0.51857235
H      -0.43424138       0.92663676      -0.12690201
    4