    6
i = 0 energy = {'iqa': {'H3': 0.48027911613971774, 'H5': 0.47734247998413054, 'O1': 0.29983578701175284, 'H6': 0.09937493248939769, 'O4': 0.07082311741183128, 'H2': 0.22618446822119234}}
O       0.00000000       0.00000000       0.00000000
H       0.96866215       0.00000000       0.00000000
H      -0.21396297       0.95285364       0.00000000
O       2.37921807      -1.16204804       2.04465958
H       2.95606298      -0.43589128       1.73318650
H       2.52677782      -0.91462853       2.97013203
    6
i = 1 energy = {'iqa': {'H3': 0.4198285614026961, 'H5': 0.05832058887803903, 'O1': 0.22788361203798477, 'H6': 0.5002542116818383, 'O4': 0.23284171959681865, 'H2': 0.22398961267328132}}
O       0.00000000       0.00000000       0.00000000
H       0.95381396       0.00000000       0.00000000
H      -0.19592956       0.97745489       0.00000000
O      -1.89713263      -0.36202378      -2.39431016
H      -1.94689270       0.11818630      -3.26952905
H      -1.15816150       0.14088836      -1.97281205
    6
i = 2 energy = {'iqa': {'H3': 0.28074079927317536, 'H5': 0.4820170993604812, 'O1': 1.4112608315118447, 'H6': 0.006834997985553248, 'O4': 0.4913517298278406, 'H2': 0.7228575583622224}}
O       0.00000000       0.00000000       0.00000000
H       0.98006036       0.00000000       0.00000000
H      -0.30104042       0.90913852       0.00000000
O       2.56651027      -1.12459474       0.96314789
H       2.02373754      -0.60403459       1.55577750
H       2.75109967      -1.85091601       1.56052776
    6
i = 3 energy = {'iqa': {'H3': 0.5806853181188245, 'H5': 0.20632049024911842, 'O1': 1.1167311324100069, 'H6': 0.16858162861498202, 'O4': 0.003263350540078251, 'H2': 0.7889329660441251}}
O       0.00000000       0.00000000       0.00000000
H       0.98761219       0.00000000       0.00000000
H      -0.17225742       0.95940911       0.00000000
O      -2.94078323      -0.91666379       0.47136181
H      -3.66615489      -1.29717973       1.01950240
H      -3.54876344      -0.24096946       0.10659158
    6
i = 4 energy = {'iqa': {'H3': 0.05688890420070288, 'H5': 0.2687350933281425, 'O1': 0.04652842644169639, 'H6': 0.38025177051957393, 'O4': 0.5047361484807342, 'H2': 0.1896762874805035}}
O       0.00000000       0.00000000       0.00000000
H       0.96303649       0.00000000       0.00000000
H      -0.15810463       0.97583210       0.00000000
O       1.24192926      -2.77293731       0.32581043
H       1.34137236      -2.26857379      -0.51237516
H       2.06559656      -3.28779597       0.27177517
    6
i = 5 energy = {'iqa': {'H3': 0.5978137678590429, 'H5': 0.004383773266226402, 'O1': 0.16718071347522984, 'H6': 0.04637858002523562, 'O4': 0.28844582981238215, 'H2': 0.341414994300779}}
O       0.00000000       0.00000000       0.00000000
H       0.97263054       0.00000000       0.00000000
H      -0.18198136       0.94254495       0.00000000
O       1.19110718      -2.15233949      -1.57773738
H       1.40898582      -2.14893771      -0.60989720
H       1.00099924      -3.07498114      -1.80244549
    6
i = 6 energy = {'iqa': {'H3': 0.28064976164872063, 'H5': 0.7435869130059096, 'O1': 1.2519830694373644, 'H6': 0.2495634345748694, 'O4': 0.7446826732303821, 'H2': 0.012626400223474943}}
O       0.00000000       0.00000000       0.00000000
H       0.94562795       0.00000000       0.00000000
H      -0.42348609       0.87825039       0.00000000
O       0.09022855      -0.73155689      -3.20280282
H      -0.34574076      -0.05603903      -2.67025226
H      -0.31077995      -0.57150661      -4.07611491
    6
i = 7 energy = {'iqa': {'H3': 0.36408010848378264, 'H5': 0.5634546104695338, 'O1': 0.10473249047265801, 'H6': 0.08629980820054979, 'O4': 0.6414612177854475, 'H2': 0.7274538455839463}}
O       0.00000000       0.00000000       0.00000000
H       0.98045735       0.00000000       0.00000000
H      -0.34722737       0.93256919       0.00000000
O       0.46645591      -2.93723305       0.16512948
H       0.46962882      -3.09165686      -0.79757396
H       1.13765711      -2.23680657       0.30585551
    6
i = 8 energy = {'iqa': {'H3': 0.13688101663829066, 'H5': 0.09714690107230452, 'O1': 0.24240572931174853, 'H6': 0.0843944923777888, 'O4': 0.10052969451051795, 'H2': 0.21176970363442546}}
O       0.00000000       0.00000000       0.00000000
H       0.95090201       0.00000000       0.00000000
H      -0.22165823       0.93254131       0.00000000
O       0.79373317      -2.69904441      -0.82834641
H      -0.09697283      -2.99887429      -0.58964647
H       0.91591819      -2.00015133      -0.14421458
    6
i = 9 energy = {'iqa': {'H3': 0.07485647395933008, 'H5': 0.32721472876289914, 'O1': 0.09887535367029025, 'H6': 0.21138275463110368, 'O4': 0.3538731294252865, 'H2': 0.01379284073260075}}
O       0.00000000       0.00000000       0.00000000
H       0.96238449       0.00000000       0.00000000
H      -0.13449770       0.97549992       0.00000000
O       1.30972684      -2.83108314      -0.29972981
H       1.35106621      -2.46172853       0.60724852
H       0.73034617      -3.58276598      -0.03421420
    6
i = 10 energy = {'iqa': {'H3': 0.022834717402228828, 'H5': 0.12246615074335064, 'O1': 0.15443172307807812, 'H6': 0.09315333616684013, 'O4': 0.26716010179797783, 'H2': 0.016570305420411467}}
O       0.00000000       0.00000000       0.00000000
H       0.98278113       0.00000000       0.00000000
H      -0.12968498       0.97672860       0.00000000
O      -0.03293434      -3.31384057       1.06155728
H       0.89085614      -3.33602218       1.35390006
H      -0.39020058      -3.20433829       1.97446670
    6
i = 11 energy = {'iqa': {'H3': 0.29300316489092865, 'H5': 0.005574190897012045, 'O1': 0.8113932922124613, 'H6': 0.12676457641218178, 'O4': 0.3474704708845404, 'H2': 0.09556141064080396}}
O       0.00000000       0.00000000       0.00000000
H       0.94179277       0.00000000       0.00000000
H      -0.29735864       0.90541090       0.00000000
O       0.50845623      -2.54366682       1.88626578
H      -0.16775821      -2.06715018       1.34782836
H       0.10107966      -2.97364137       2.65967800
    6
i = 12 energy = {'iqa': {'H3': 0.2933106669177323, 'H5': 0.1685154799326752, 'O1': 0.48545613971998103, 'H6': 0.2146792024123682, 'O4': 0.03942816482375382, 'H2': 0.08215618909374087}}
O       0.00000000       0.00000000       0.00000000
H       0.98492215       0.00000000       0.00000000
H      -0.41574376       0.90338297       0.00000000
O      -1.49596391      -2.78341558       0.50593063
H      -1.80315844      -3.05132892       1.39751759
H      -1.26069467      -1.84567023       0.58072407
    6
i = 13 energy = {'iqa': {'H3': 0.15129769271003776, 'H5': 0.05266461707193201, 'O1': 0.3808553897084734, 'H6': 0.4267341972197138, 'O4': 0.7610653001722374, 'H2': 0.009841537277457313}}
O       0.00000000       0.00000000       0.00000000
H       0.94798808       0.00000000       0.00000000
H      -0.02873442       0.94097587       0.00000000
O       0.71060469      -1.89096794       2.70583413
H       1.36030488      -1.44949794       2.17599012
H       0.69776008      -1.29388187       3.50136527
    6
i = 14 energy = {'iqa': {'H3': 1.3243534821229772, 'H5': 0.4663212847265357, 'O1': 0.40810997150995054, 'H6': 0.12661591908974212, 'O4': 1.050585597148015, 'H2': 0.363203647580487}}
O       0.00000000       0.00000000       0.00000000
H       0.97991728       0.00000000       0.00000000
H      -0.27336103       0.92980467       0.00000000
O      -2.46209197       0.60840051      -1.88277380
H      -3.11676490       0.71070391      -1.15981008
H      -2.52632383      -0.31781299      -2.14577331
    6
i = 15 energy = {'iqa': {'H3': 2.173982189224379, 'H5': 0.04849966539635368, 'O1': 5.506092183359891, 'H6': 0.0315702937911551, 'O4': 0.19141504023241251, 'H2': 2.4062758374448734}}
O       0.00000000       0.00000000       0.00000000
H       0.96840583       0.00000000       0.00000000
H      -0.33040544       0.88541485       0.00000000
O      -0.03812165      -0.25159638       3.27512877
H       0.35873243      -0.97198524       2.74928100
H       0.49408377      -0.23436359       4.10471752
    6
i = 16 energy = {'iqa': {'H3': 0.28879900792212504, 'H5': 0.5516849355100043, 'O1': 0.46289390681789877, 'H6': 0.05515847611665982, 'O4': 0.7890602424692081, 'H2': 0.24964980183450644}}
O       0.00000000       0.00000000       0.00000000
H       0.99874639       0.00000000       0.00000000
H      -0.18703668       0.96956271       0.00000000
O       0.41506779      -2.31312925      -2.58023017
H       0.80209017      -1.42998528      -2.52829417
H       1.20706681      -2.83451582      -2.54435168
    6
i = 17 energy = {'iqa': {'H3': 3.0223488544247696, 'H5': 0.2911391509513711, 'O1': 1.7992280995289918, 'H6': 0.7603203633716419, 'O4': 0.550355520546171, 'H2': 1.6729834334158336}}
O       0.00000000       0.00000000       0.00000000
H       0.96307801       0.00000000       0.00000000
H       0.01363958       0.99111691       0.00000000
O      -1.00837517       0.13954122       2.86823175
H      -0.53284085       0.78745862       3.40929600
H      -1.26772445       0.61756110       2.06083821
    6
i = 18 energy = {'iqa': {'H3': 0.244278337704498, 'H5': 0.47457359533640014, 'O1': 0.4817052403438904, 'H6': 0.6099017365284809, 'O4': 3.685695917431118, 'H2': 0.04619477024660251}}
O       0.00000000       0.00000000       0.00000000
H       0.96194808       0.00000000       0.00000000
H      -0.36899312       0.91203535       0.00000000
O       1.69029855      -2.49177758      -0.27903871
H       1.01345258      -2.71659143       0.35684556
H       1.29559882      -2.56544313      -1.15062769
    6
i = 19 energy = {'iqa': {'H3': 0.005484849357794726, 'H5': 0.8894209464864425, 'O1': 0.5764080294458113, 'H6': 0.2939976647334779, 'O4': 0.627904380870991, 'H2': 0.3960682145667267}}
O       0.00000000       0.00000000       0.00000000
H       0.97219783       0.00000000       0.00000000
H      -0.12069268       0.96710928       0.00000000
O       2.16605493      -1.51580993       1.15777166
H       2.78187201      -1.11378401       0.51586094
H       2.71953287      -2.05976927       1.74738800
    6
i = 20 energy = {'iqa': {'H3': 0.5755215709403443, 'H5': 0.0697510558533519, 'O1': 1.2568883026611144, 'H6': 0.07728028550489144, 'O4': 0.6788647764344174, 'H2': 0.7948585488910189}}
O       0.00000000       0.00000000       0.00000000
H       0.99296856       0.00000000       0.00000000
H      -0.23203079       0.94071159       0.00000000
O      -2.05049382      -0.34963861       2.15897138
H      -2.40379990      -0.31652743       1.24135888
H      -2.80958102       0.12836290       2.55250902
    6
i = 21 energy = {'iqa': {'H3': 0.6464774638804707, 'H5': 0.4934957549824829, 'O1': 1.1203465094858358, 'H6': 0.851122501486939, 'O4': 1.492891753813622, 'H2': 0.37761205217164}}
O       0.00000000       0.00000000       0.00000000
H       0.95073077       0.00000000       0.00000000
H      -0.01149681       0.97840302       0.00000000
O       0.27170468      -2.53727247       0.77781307
H       0.81755808      -1.74596054       0.99402385
H       0.11311870      -2.90395240       1.69062084
    6
i = 22 energy = {'iqa': {'H3': 0.08490243756634663, 'H5': 0.027135875386191777, 'O1': 0.10334830549460651, 'H6': 0.23617466448840646, 'O4': 0.22189413142485223, 'H2': 0.08374001020277641}}
O       0.00000000       0.00000000       0.00000000
H       0.96161860       0.00000000       0.00000000
H      -0.16900260       0.93893363       0.00000000
O      -1.78918429      -2.17324638      -0.98399888
H      -2.42918487      -2.16507931      -1.72047767
H      -1.00160776      -2.51918579      -1.46365434
    6
i = 23 energy = {'iqa': {'H3': 0.143049476739499, 'H5': 0.3341382119936528, 'O1': 0.06133620011464279, 'H6': 0.025050048373161465, 'O4': 0.444515868494799, 'H2': 0.007269146842154538}}
O       0.00000000       0.00000000       0.00000000
H       0.99894035       0.00000000       0.00000000
H      -0.01903251       0.97685221       0.00000000
O      -1.24900809      -2.76003916      -0.34408982
H      -1.23310168      -2.61277611      -1.30293994
H      -2.20292583      -2.67834777      -0.16477072
    6
i = 24 energy = {'iqa': {'H3': 0.14192185826757442, 'H5': 0.061355887896743545, 'O1': 0.2600935899255031, 'H6': 0.4717657405880202, 'O4': 0.30054631015065825, 'H2': 0.2298303872748151}}
O       0.00000000       0.00000000       0.00000000
H       0.97556589       0.00000000       0.00000000
H      -0.21531688       0.92285096       0.00000000
O       0.65354514      -3.11218884      -0.18825015
H       1.38724293      -3.42783877       0.39731211
H       0.01669775      -2.90049560       0.50539229
    6
i = 25 energy = {'iqa': {'H3': 0.2543839783767158, 'H5': 0.17574100622680683, 'O1': 0.4486845526867783, 'H6': 0.1290784850063905, 'O4': 0.3418702611747857, 'H2': 0.23194182972613797}}
O       0.00000000       0.00000000       0.00000000
H       0.97393506       0.00000000       0.00000000
H      -0.26398429       0.93897828       0.00000000
O      -2.22772679      -1.90819968       0.59345326
H      -1.83570765      -2.44442136       1.28716512
H      -2.02129617      -2.33589963      -0.24933233
    6
i = 26 energy = {'iqa': {'H3': 0.10285108160344668, 'H5': 0.08202031534837993, 'O1': 0.1006567314116443, 'H6': 0.13468918921337356, 'O4': 0.03176653998621909, 'H2': 2.9766830416204018}}
O       0.00000000       0.00000000       0.00000000
H       0.95886892       0.00000000       0.00000000
H      -0.18998573       0.95130597       0.00000000
O       0.47711739      -0.56815605      -3.06879218
H       0.74267739      -0.26903589      -3.94644665
H       0.39210630      -1.53066142      -3.23001767
    6
i = 27 energy = {'iqa': {'H3': 0.05472366654307398, 'H5': 0.22033464855447263, 'O1': 0.039602253891023585, 'H6': 0.3662186068052799, 'O4': 0.4308238654470103, 'H2': 0.24147084858638432}}
O       0.00000000       0.00000000       0.00000000
H       0.97880955       0.00000000       0.00000000
H      -0.21713924       0.95155711       0.00000000
O      -1.10351488      -1.93334804       2.18761156
H      -1.94815355      -1.55102265       1.87963685
H      -1.02200922      -1.59567576       3.12078732
    6
i = 28 energy = {'iqa': {'H3': 0.8904695281373538, 'H5': 0.7765437361497041, 'O1': 2.5946821417726973, 'H6': 0.08573043901974782, 'O4': 1.9869887735253335, 'H2': 4.038731733442605}}
O       0.00000000       0.00000000       0.00000000
H       0.98671769       0.00000000       0.00000000
H      -0.20277956       0.97036934       0.00000000
O       3.03434347       0.75177723       0.78834472
H       2.09657998       0.63387664       1.04127452
H       3.54321965       0.57957901       1.61304508
    6
i = 29 energy = {'iqa': {'H3': 0.7459267023900432, 'H5': 0.19280981023193788, 'O1': 0.43286377597969783, 'H6': 0.27049059454565916, 'O4': 0.07710508062116979, 'H2': 1.0630141867025595}}
O       0.00000000       0.00000000       0.00000000
H       0.94602028       0.00000000       0.00000000
H      -0.21197299       0.95202240       0.00000000
O       1.70811259      -0.44003470       2.64027186
H       1.50167551      -0.90156578       3.45686646
H       2.20327376       0.24406124       3.05654140
    6
i = 30 energy = {'iqa': {'H3': 0.4766184600200318, 'H5': 0.08793389816923353, 'O1': 1.164153513817152, 'H6': 0.1999465617494942, 'O4': 0.5759558212416813, 'H2': 0.3045018138921145}}
O       0.00000000       0.00000000       0.00000000
H       0.98169490       0.00000000       0.00000000
H      -0.22419041       0.94635613       0.00000000
O       2.06550407      -2.01779827      -0.17882479
H       2.19075458      -2.94898455       0.01843996
H       2.84255025      -1.84509402      -0.74453116
    6
i = 31 energy = {'iqa': {'H3': 0.031200709646460104, 'H5': 0.33653186754490705, 'O1': 0.3910052115289868, 'H6': 0.2000670574260839, 'O4': 0.40981662534737656, 'H2': 0.09158736976328401}}
O       0.00000000       0.00000000       0.00000000
H       0.97436132       0.00000000       0.00000000
H      -0.10440531       0.96240680       0.00000000
O       0.13721165      -3.05567839       0.47547343
H       0.92930776      -3.59806011       0.65020828
H      -0.35252042      -3.55457988      -0.20547512
    6
i = 32 energy = {'iqa': {'H3': 0.1100519627754979, 'H5': 0.3891730654066115, 'O1': 0.3593500136679356, 'H6': 0.13506071250768822, 'O4': 0.37589542247770613, 'H2': 0.2047538506777702}}
O       0.00000000       0.00000000       0.00000000
H       0.96197322       0.00000000       0.00000000
H      -0.10538275       0.94795751       0.00000000
O       1.71442377      -1.98066197      -2.12685262
H       1.92939994      -2.30045089      -1.22606154
H       0.74079689      -1.97032420      -2.15733801
    6
i = 33 energy = {'iqa': {'H3': 0.12861577077693317, 'H5': 0.08376954143628924, 'O1': 0.15583079830375116, 'H6': 0.49646386111923924, 'O4': 0.13319595689648497, 'H2': 0.09638571338163951}}
O       0.00000000       0.00000000       0.00000000
H       0.96163048       0.00000000       0.00000000
H      -0.22684304       0.93665439       0.00000000
O      -2.99012023      -1.53778101       1.11594019
H      -2.96472999      -0.82405132       0.46205986
H      -3.84496788      -1.91962799       0.90765925
    6
i = 34 energy = {'iqa': {'H3': 0.2649155723846462, 'H5': 0.35860334589436543, 'O1': 0.5081548108600956, 'H6': 0.384092809359098, 'O4': 0.5711327414684974, 'H2': 0.18057067420308337}}
O       0.00000000       0.00000000       0.00000000
H       0.98240825       0.00000000       0.00000000
H      -0.16762538       0.94729296       0.00000000
O      -2.50495965      -1.48465607      -1.50466269
H      -3.11039656      -1.52853606      -2.26814170
H      -3.08425655      -1.16535708      -0.79100111
    6
i = 35 energy = {'iqa': {'H3': 0.20135621589839944, 'H5': 0.7933035470796651, 'O1': 0.4082176503690745, 'H6': 0.8164829304324982, 'O4': 1.8097803423344037, 'H2': 0.8464423920837613}}
O       0.00000000       0.00000000       0.00000000
H       0.96015727       0.00000000       0.00000000
H      -0.36532346       0.89950253       0.00000000
O       3.07055281      -0.33791823       1.34951910
H       3.04285616      -1.28882433       1.49918705
H       4.00926602      -0.12958279       1.30121163
    6
i = 36 energy = {'iqa': {'H3': 0.07246347789497677, 'H5': 0.12637611166394108, 'O1': 0.14015026734350297, 'H6': 0.019142688600406913, 'O4': 0.06601575786043076, 'H2': 0.001414243097343134}}
O       0.00000000       0.00000000       0.00000000
H       0.95933032       0.00000000       0.00000000
H      -0.27331406       0.95117001       0.00000000
O      -2.09433042      -1.98542452      -1.80712164
H      -2.32573484      -2.61386982      -2.52720816
H      -2.96228730      -2.00460608      -1.39591382
    6
i = 37 energy = {'iqa': {'H3': 1.4729579002582303, 'H5': 0.1726113588600131, 'O1': 0.4880283568771611, 'H6': 0.6748452602746193, 'O4': 0.7108719461711991, 'H2': 0.025532170674192577}}
O       0.00000000       0.00000000       0.00000000
H       0.96573401       0.00000000       0.00000000
H      -0.20829408       0.94227320       0.00000000
O      -3.44635150      -0.31043646      -0.74230306
H      -3.45506127      -1.23446721      -1.07055934
H      -2.49418881      -0.25391691      -0.63266905
    6
i = 38 energy = {'iqa': {'H3': 0.07416903148277601, 'H5': 0.23339563056117557, 'O1': 0.18786164575385825, 'H6': 0.010895405597155563, 'O4': 0.5029611111897812, 'H2': 0.09914134429741617}}
O       0.00000000       0.00000000       0.00000000
H       0.97749781       0.00000000       0.00000000
H      -0.26573137       0.94102151       0.00000000
O      -0.81417830      -2.81741948       1.38066817
H      -0.08942284      -2.91220399       2.01346281
H      -0.77647216      -3.69508172       0.96457082
    6
i = 39 energy = {'iqa': {'H3': 0.058074795038856486, 'H5': 0.22840805942197182, 'O1': 0.7429871546277831, 'H6': 0.5845118145744463, 'O4': 0.07836098050948555, 'H2': 0.24939601348890364}}
O       0.00000000       0.00000000       0.00000000
H       0.98359074       0.00000000       0.00000000
H       0.03222394       0.96312721       0.00000000
O      -1.20470872      -2.44141559       1.87059716
H      -1.97552007      -2.58274251       2.44132825
H      -1.48983493      -1.63476418       1.37383768
    6
i = 40 energy = {'iqa': {'H3': 0.1840331066174026, 'H5': 0.20347797887522984, 'O1': 0.18159377800186932, 'H6': 0.02408713091854453, 'O4': 0.47238457804587447, 'H2': 0.1312861026856589}}
O       0.00000000       0.00000000       0.00000000
H       0.96713354       0.00000000       0.00000000
H      -0.16756916       0.95754121       0.00000000
O       0.47755909      -3.09529964      -0.69477343
H      -0.36683245      -2.64122402      -0.58326820
H       1.08826366      -2.31914283      -0.75235233
    6
i = 41 energy = {'iqa': {'H3': 0.05843138388954793, 'H5': 0.17753571010350824, 'O1': 0.9706116585823866, 'H6': 0.15727653359270616, 'O4': 0.43469206511432434, 'H2': 0.2887302947120305}}
O       0.00000000       0.00000000       0.00000000
H       0.97979764       0.00000000       0.00000000
H      -0.12697878       0.95974868       0.00000000
O      -2.91385959      -1.11350116      -1.15194783
H      -2.92670274      -0.40525504      -1.81985133
H      -3.83271496      -1.39365521      -1.07094303
    6
i = 42 energy = {'iqa': {'H3': 0.6359902525060591, 'H5': 0.46050074336714447, 'O1': 8.24494523069385, 'H6': 0.32296084093863736, 'O4': 0.8160728596216931, 'H2': 1.7978796357412619}}
O       0.00000000       0.00000000       0.00000000
H       0.96345741       0.00000000       0.00000000
H      -0.12030904       0.95438784       0.00000000
O       0.34242524      -0.37559977      -3.11526429
H       0.33480479      -0.06988977      -2.18622450
H       1.22463078      -0.78367910      -3.30512194
    6
i = 43 energy = {'iqa': {'H3': 0.5351738363972656, 'H5': 0.17979012238631145, 'O1': 2.0393037901595665, 'H6': 0.09991677208461197, 'O4': 0.7774039066202592, 'H2': 0.1297407051006825}}
O       0.00000000       0.00000000       0.00000000
H       0.97646126       0.00000000       0.00000000
H      -0.17671467       0.96647445       0.00000000
O      -0.00475944      -2.88882603      -0.30471690
H       0.08589672      -1.91934219      -0.35683771
H      -0.68236203      -2.80950565       0.40659824
    6
i = 44 energy = {'iqa': {'H3': 0.0019069954588360563, 'H5': 3.4815458136399413, 'O1': 0.3114333104326618, 'H6': 0.4857295410967841, 'O4': 0.03200650478737662, 'H2': 0.031819630661972464}}
O       0.00000000       0.00000000       0.00000000
H       0.98998619       0.00000000       0.00000000
H      -0.11276177       0.96634471       0.00000000
O      -1.00573244      -3.14716584      -0.71059098
H      -0.83172291      -3.14205963       0.24619447
H      -0.09829534      -3.46361989      -0.94725850
    6
i = 45 energy = {'iqa': {'H3': 0.577486463217958, 'H5': 0.5122577725019316, 'O1': 0.9394829836441098, 'H6': 0.11076859483245617, 'O4': 0.004989994237104344, 'H2': 0.023795268753646556}}
O       0.00000000       0.00000000       0.00000000
H       0.98011697       0.00000000       0.00000000
H      -0.09908576       0.97751005       0.00000000
O       1.24070147      -2.66165804      -1.11475713
H       1.31317192      -1.74392189      -1.34908140
H       0.29609042      -2.67045404      -0.89995926
    6
i = 46 energy = {'iqa': {'H3': 0.25066745861450357, 'H5': 0.0007618684466448758, 'O1': 0.43059842767484235, 'H6': 0.071298405311152, 'O4': 0.11324022040899968, 'H2': 0.021870854503720172}}
O       0.00000000       0.00000000       0.00000000
H       0.98121825       0.00000000       0.00000000
H      -0.22385422       0.94272314       0.00000000
O      -2.11225096      -1.32304852       1.99708287
H      -1.66306596      -0.67722187       2.53023877
H      -3.01864936      -1.26976437       2.29208619
    6
i = 47 energy = {'iqa': {'H3': 0.6925159805950705, 'H5': 0.04939287849281849, 'O1': 0.7613642686182288, 'H6': 0.05359693005438466, 'O4': 0.021989568228967107, 'H2': 0.7799692942453443}}
O       0.00000000       0.00000000       0.00000000
H       0.99229020       0.00000000       0.00000000
H      -0.09181930       0.99038028       0.00000000
O      -1.58013007      -2.04398664       1.50121802
H      -1.54633728      -1.44462658       0.75064413
H      -1.00134724      -1.49526348       2.06519160
    6
i = 48 energy = {'iqa': {'H3': 0.22479571742479348, 'H5': 0.9965698004719366, 'O1': 0.02554242412909796, 'H6': 0.19913088943480148, 'O4': 0.2855755154115789, 'H2': 0.06365660021571005}}
O       0.00000000       0.00000000       0.00000000
H       0.96556262       0.00000000       0.00000000
H      -0.03696989       0.98155812       0.00000000
O      -0.71079755      -3.28353018      -0.42764063
H       0.18164031      -3.15164662      -0.09042547
H      -1.28451312      -3.29983007       0.37865061
    6
i = 49 energy = {'iqa': {'H3': 0.39245301353437684, 'H5': 1.427099442912518, 'O1': 0.010496703747709194, 'H6': 0.1824015271770006, 'O4': 0.06925107463803147, 'H2': 0.06370310736196005}}
O       0.00000000       0.00000000       0.00000000
H       0.96857412       0.00000000       0.00000000
H      -0.06134139       0.98986795       0.00000000
O       0.49293772      -3.16029342      -0.76731946
H       0.19595029      -2.58534916      -1.49552962
H      -0.22113600      -3.22672643      -0.12405877
    6
i = 50 energy = {'iqa': {'H3': 0.8421918383002148, 'H5': 0.36043066386585854, 'O1': 0.5973494230257523, 'H6': 0.5533904317734281, 'O4': 0.15204603251196544, 'H2': 0.4389684822133208}}
O       0.00000000       0.00000000       0.00000000
H       0.98002999       0.00000000       0.00000000
H      -0.21112521       0.94657266       0.00000000
O       0.03858577      -2.42858247      -2.53116744
H      -0.11887716      -3.08087035      -1.82422037
H      -0.84709336      -2.30686998      -2.95476681
    6
i = 51 energy = {'iqa': {'H3': 2.612853601668152, 'H5': 0.7563779606766953, 'O1': 2.7753416468320733, 'H6': 1.5831030643349409, 'O4': 2.861484401469959, 'H2': 6.236633845296309}}
O       0.00000000       0.00000000       0.00000000
H       0.97801472       0.00000000       0.00000000
H      -0.02463528       0.98752028       0.00000000
O       2.75286213       0.93032571      -1.11843461
H       2.66944280       1.90437544      -1.12812233
H       1.79728318       0.78441362      -1.15566207
    6
i = 52 energy = {'iqa': {'H3': 0.14063513624437657, 'H5': 0.5839293802913739, 'O1': 0.1761425478893274, 'H6': 0.40845477415593157, 'O4': 0.3659453803443305, 'H2': 0.03812266453924073}}
O       0.00000000       0.00000000       0.00000000
H       0.97457286       0.00000000       0.00000000
H      -0.14697690       0.96119560       0.00000000
O       2.54655653      -2.35560540      -0.54102127
H       1.62871375      -2.02562845      -0.51637568
H       2.72583165      -2.33364298      -1.51153049
    6
i = 53 energy = {'iqa': {'H3': 0.6036153169728468, 'H5': 0.047429564094359306, 'O1': 1.6175084443511873, 'H6': 0.4571774004503272, 'O4': 0.3886659177684351, 'H2': 0.8668029207426211}}
O       0.00000000       0.00000000       0.00000000
H       0.96956422       0.00000000       0.00000000
H      -0.20573720       0.94776034       0.00000000
O      -0.76439298      -1.43012047      -2.94333027
H      -0.75031087      -2.27704056      -3.41935390
H       0.09916028      -1.09095809      -3.30368188
    6
i = 54 energy = {'iqa': {'H3': 6.037933128646896, 'H5': 0.30189002602233517, 'O1': 2.242941784508433, 'H6': 0.6315724852345861, 'O4': 0.9540667385413966, 'H2': 1.8052211781098193}}
O       0.00000000       0.00000000       0.00000000
H       0.96947074       0.00000000       0.00000000
H       0.02341900       0.97995743       0.00000000
O      -0.75327387       0.22710849       3.21548819
H      -1.48308509       0.86499319       3.08331211
H      -0.58167086       0.48437319       4.13986348
    6
i = 55 energy = {'iqa': {'H3': 0.049794948518238444, 'H5': 0.29008444946031364, 'O1': 0.5596219921540384, 'H6': 0.03923709621004482, 'O4': 0.24207998305249248, 'H2': 0.01907701756074489}}
O       0.00000000       0.00000000       0.00000000
H       0.96699495       0.00000000       0.00000000
H      -0.04342709       0.98067056       0.00000000
O      -1.65004505      -2.11336339       1.97896305
H      -1.08052390      -1.55928983       1.42441991
H      -1.07918306      -2.31738029       2.70978697
    6
i = 56 energy = {'iqa': {'H3': 0.21544764040535117, 'H5': 0.09314302277479751, 'O1': 0.9326982966713057, 'H6': 0.032792055653145594, 'O4': 0.10131443539783412, 'H2': 0.18278695834746767}}
O       0.00000000       0.00000000       0.00000000
H       0.98496919       0.00000000       0.00000000
H      -0.22608987       0.95928852       0.00000000
O      -1.00733676      -2.38463150       1.74531691
H      -1.70369289      -2.88123589       1.31218698
H      -0.72844494      -1.62172233       1.22494547
    6
i = 57 energy = {'iqa': {'H3': 0.019029886326019974, 'H5': 0.2686178532208018, 'O1': 1.0159484345754868, 'H6': 0.4342349358821674, 'O4': 0.9391779343548299, 'H2': 0.046510847008823686}}
O       0.00000000       0.00000000       0.00000000
H       0.96926698       0.00000000       0.00000000
H      -0.02067667       0.96256214       0.00000000
O       2.28362021      -2.17588917       0.22321506
H       3.09175643      -1.62164499       0.24629217
H       2.64180082      -3.03674200      -0.05020676
    6
i = 58 energy = {'iqa': {'H3': 0.25382646206197584, 'H5': 0.13556563516969547, 'O1': 0.15968971763241543, 'H6': 0.01725850250183312, 'O4': 0.30750313947318314, 'H2': 0.09831848970650862}}
O       0.00000000       0.00000000       0.00000000
H       0.96658759       0.00000000       0.00000000
H      -0.29149088       0.91174950       0.00000000
O       0.59906995      -3.06655976      -0.12114210
H       1.14800172      -3.84855642       0.05156706