    6
i = 0 energy = {'iqa': {'H3': 0.00018292865438551686, 'H2': 8.614911418003413e-05, 'H5': 0.0001818101487451318, 'O1': 0.00011420141998996769, 'H6': 3.784991282995698e-05, 'O4': 2.69751007948571e-05}}
O       0.00000000       0.00000000       0.00000000
H       0.96866215       0.00000000       0.00000000
H      -0.21396297       0.95285364       0.00000000
O       2.37921807      -1.16204804       2.04465958
H       2.95606298      -0.43589128       1.73318650
H       2.52677782      -0.91462853       2.97013203
    6
i = 1 energy = {'iqa': {'H3': 0.00015990425406642306, 'H2': 8.531313785198336e-05, 'H5': 2.221313916828116e-05, 'O1': 8.67962838810854e-05, 'H6': 0.00019053676647273754, 'O4': 8.868472731649035e-05}}
O       0.00000000       0.00000000       0.00000000
H       0.95381396       0.00000000       0.00000000
H      -0.19592956       0.97745489       0.00000000
O      -1.89713263      -0.36202378      -2.39431016
H      -1.94689270       0.11818630      -3.26952905
H      -1.15816150       0.14088836      -1.97281205
    6
i = 2 energy = {'iqa': {'H3': 0.00010692852326149582, 'H2': 0.0002753219034931642, 'H5': 0.00018359061723427494, 'O1': 0.000537520862806673, 'H6': 2.6033132447533802e-06, 'O4': 0.00018714599021052436}}
O       0.00000000       0.00000000       0.00000000
H       0.98006036       0.00000000       0.00000000
H      -0.30104042       0.90913852       0.00000000
O       2.56651027      -1.12459474       0.96314789
H       2.02373754      -0.60403459       1.55577750
H       2.75109967      -1.85091601       1.56052776
    6
i = 3 energy = {'iqa': {'H3': 0.0002211713570198226, 'H2': 0.00030048869715343374, 'H5': 7.858332454008243e-05, 'O1': 0.00042534042496811253, 'H6': 6.420935127166016e-05, 'O4': 1.2429445774841952e-06}}
O       0.00000000       0.00000000       0.00000000
H       0.98761219       0.00000000       0.00000000
H      -0.17225742       0.95940911       0.00000000
O      -2.94078323      -0.91666379       0.47136181
H      -3.66615489      -1.29717973       1.01950240
H      -3.54876344      -0.24096946       0.10659158
    6
i = 4 energy = {'iqa': {'H3': 2.1667839273431522e-05, 'H2': 7.224388250842706e-05, 'H5': 0.00010235579136524953, 'O1': 1.772174169900609e-05, 'H6': 0.00014483025051753584, 'O4': 0.00019224384604399347}}
O       0.00000000       0.00000000       0.00000000
H       0.96303649       0.00000000       0.00000000
H      -0.15810463       0.97583210       0.00000000
O       1.24192926      -2.77293731       0.32581043
H       1.34137236      -2.26857379      -0.51237516
H       2.06559656      -3.28779597       0.27177517
    6
i = 5 energy = {'iqa': {'H3': 0.00022769523898219513, 'H2': 0.00013003810366868374, 'H5': 1.6696910562497003e-06, 'O1': 6.367577087473819e-05, 'H6': 1.76646682131798e-05, 'O4': 0.00010986321440498159}}
O       0.00000000       0.00000000       0.00000000
H       0.97263054       0.00000000       0.00000000
H      -0.18198136       0.94254495       0.00000000
O       1.19110718      -2.15233949      -1.57773738
H       1.40898582      -2.14893771      -0.60989720
H       1.00099924      -3.07498114      -1.80244549
    6
i = 6 energy = {'iqa': {'H3': 0.00010689384886158892, 'H2': 4.80914186146153e-06, 'H5': 0.00028321729770003357, 'O1': 0.00047685516715034737, 'H6': 9.505369218953952e-05, 'O4': 0.0002836346507280041}}
O       0.00000000       0.00000000       0.00000000
H       0.94562795       0.00000000       0.00000000
H      -0.42348609       0.87825039       0.00000000
O       0.09022855      -0.73155689      -3.20280282
H      -0.34574076      -0.05603903      -2.67025226
H      -0.31077995      -0.57150661      -4.07611491
    6
i = 7 energy = {'iqa': {'H3': 0.00013867078974572067, 'H2': 0.00027707253684028377, 'H5': 0.00021460852707683165, 'O1': 3.9890498896966164e-05, 'H6': 3.28698609982081e-05, 'O4': 0.00024431967467819504}}
O       0.00000000       0.00000000       0.00000000
H       0.98045735       0.00000000       0.00000000
H      -0.34722737       0.93256919       0.00000000
O       0.46645591      -2.93723305       0.16512948
H       0.46962882      -3.09165686      -0.79757396
H       1.13765711      -2.23680657       0.30585551
    6
i = 8 energy = {'iqa': {'H3': 5.213522583663588e-05, 'H2': 8.065882030605653e-05, 'H5': 3.7001300480676846e-05, 'O1': 9.232746623411003e-05, 'H6': 3.214416452729241e-05, 'O4': 3.82897384554326e-05}}
O       0.00000000       0.00000000       0.00000000
H       0.95090201       0.00000000       0.00000000
H      -0.22165823       0.93254131       0.00000000
O       0.79373317      -2.69904441      -0.82834641
H      -0.09697283      -2.99887429      -0.58964647
H       0.91591819      -2.00015133      -0.14421458
    6
i = 9 energy = {'iqa': {'H3': 2.8511325171676205e-05, 'H2': 5.253415588102328e-06, 'H5': 0.00012462950816771734, 'O1': 3.765963330693012e-05, 'H6': 8.051143921428139e-05, 'O4': 0.00013478315673864927}}
O       0.00000000       0.00000000       0.00000000
H       0.96238449       0.00000000       0.00000000
H      -0.13449770       0.97549992       0.00000000
O       1.30972684      -2.83108314      -0.29972981
H       1.35106621      -2.46172853       0.60724852
H       0.73034617      -3.58276598      -0.03421420
    6
i = 10 energy = {'iqa': {'H3': 8.69728453162244e-06, 'H2': 6.311296018191026e-06, 'H5': 4.664489337641298e-05, 'O1': 5.8819936882059665e-05, 'H6': 3.548023193988836e-05, 'O4': 0.00010175590877281593}}
O       0.00000000       0.00000000       0.00000000
H       0.98278113       0.00000000       0.00000000
H      -0.12968498       0.97672860       0.00000000
O      -0.03293434      -3.31384057       1.06155728
H       0.89085614      -3.33602218       1.35390006
H      -0.39020058      -3.20433829       1.97446670
    6
i = 11 energy = {'iqa': {'H3': 0.00011159901166429842, 'H2': 3.639741906791283e-05, 'H5': 2.1230971862240544e-06, 'O1': 0.00030904338359505346, 'H6': 4.8282077249606203e-05, 'O4': 0.00013234451289179106}}
O       0.00000000       0.00000000       0.00000000
H       0.94179277       0.00000000       0.00000000
H      -0.29735864       0.90541090       0.00000000
O       0.50845623      -2.54366682       1.88626578
H      -0.16775821      -2.06715018       1.34782836
H       0.10107966      -2.97364137       2.65967800
    6
i = 12 energy = {'iqa': {'H3': 0.00011171613300081651, 'H2': 3.1291639830510753e-05, 'H5': 6.41841565691692e-05, 'O1': 0.00018490047852992575, 'H6': 8.176698986517295e-05, 'O4': 1.5017394872529621e-05}}
O       0.00000000       0.00000000       0.00000000
H       0.98492215       0.00000000       0.00000000
H      -0.41574376       0.90338297       0.00000000
O      -1.49596391      -2.78341558       0.50593063
H      -1.80315844      -3.05132892       1.39751759
H      -1.26069467      -1.84567023       0.58072407
    6
i = 13 energy = {'iqa': {'H3': 5.762624775679237e-05, 'H2': 3.7484435836399044e-06, 'H5': 2.005889327882926e-05, 'O1': 0.0001450601569246146, 'H6': 0.00016253447184028103, 'O4': 0.00028987446378891946}}
O       0.00000000       0.00000000       0.00000000
H       0.94798808       0.00000000       0.00000000
H      -0.02873442       0.94097587       0.00000000
O       0.71060469      -1.89096794       2.70583413
H       1.36030488      -1.44949794       2.17599012
H       0.69776008      -1.29388187       3.50136527
    6
i = 14 energy = {'iqa': {'H3': 0.0005044196015906999, 'H2': 0.00013833696341791768, 'H5': 0.00017761239716601596, 'O1': 0.00015544087889907132, 'H6': 4.82254566657736e-05, 'O4': 0.00040014692112322336}}
O       0.00000000       0.00000000       0.00000000
H       0.97991728       0.00000000       0.00000000
H      -0.27336103       0.92980467       0.00000000
O      -2.46209197       0.60840051      -1.88277380
H      -3.11676490       0.71070391      -1.15981008
H      -2.52632383      -0.31781299      -2.14577331
    6
i = 15 energy = {'iqa': {'H3': 0.0008280260856006194, 'H2': 0.0009165020635544807, 'H5': 1.8472546964798386e-05, 'O1': 0.0020971597560190958, 'H6': 1.2024489859541188e-05, 'O4': 7.290613845611915e-05}}
O       0.00000000       0.00000000       0.00000000
H       0.96840583       0.00000000       0.00000000
H      -0.33040544       0.88541485       0.00000000
O      -0.03812165      -0.25159638       3.27512877
H       0.35873243      -0.97198524       2.74928100
H       0.49408377      -0.23436359       4.10471752
    6
i = 16 energy = {'iqa': {'H3': 0.00010999773284270375, 'H2': 9.508658774143308e-05, 'H5': 0.00021012569463513264, 'O1': 0.0001763069778633053, 'H6': 2.1008754024276488e-05, 'O4': 0.0003005371741835461}}
O       0.00000000       0.00000000       0.00000000
H       0.99874639       0.00000000       0.00000000
H      -0.18703668       0.96956271       0.00000000
O       0.41506779      -2.31312925      -2.58023017
H       0.80209017      -1.42998528      -2.52829417
H       1.20706681      -2.83451582      -2.54435168
    6
i = 17 energy = {'iqa': {'H3': 0.0011511518832367784, 'H2': 0.0006372057372467377, 'H5': 0.0001108890462498957, 'O1': 0.0006852897911215905, 'H6': 0.00028959073234618993, 'O4': 0.00020961934721697162}}
O       0.00000000       0.00000000       0.00000000
H       0.96307801       0.00000000       0.00000000
H       0.01363958       0.99111691       0.00000000
O      -1.00837517       0.13954122       2.86823175
H      -0.53284085       0.78745862       3.40929600
H      -1.26772445       0.61756110       2.06083821
    6
i = 18 energy = {'iqa': {'H3': 9.304070510285367e-05, 'H2': 1.759465876588484e-05, 'H5': 0.00018075553627971974, 'O1': 0.00018347183640798903, 'H6': 0.000232299303095429, 'O4': 0.001403807436119564}}
O       0.00000000       0.00000000       0.00000000
H       0.96194808       0.00000000       0.00000000
H      -0.36899312       0.91203535       0.00000000
O       1.69029855      -2.49177758      -0.27903871
H       1.01345258      -2.71659143       0.35684556
H       1.29559882      -2.56544313      -1.15062769
    6
i = 19 energy = {'iqa': {'H3': 2.0890687910668504e-06, 'H2': 0.00015085441590279025, 'H5': 0.0003387625475593792, 'O1': 0.00021954222380315969, 'H6': 0.000111977796649676, 'O4': 0.00023915614819713937}}
O       0.00000000       0.00000000       0.00000000
H       0.97219783       0.00000000       0.00000000
H      -0.12069268       0.96710928       0.00000000
O       2.16605493      -1.51580993       1.15777166
H       2.78187201      -1.11378401       0.51586094
H       2.71953287      -2.05976927       1.74738800
    6
i = 20 energy = {'iqa': {'H3': 0.00021920458958979427, 'H2': 0.00030274563246501796, 'H5': 2.6566774112057878e-05, 'O1': 0.0004787234718151012, 'H6': 2.9434506233716462e-05, 'O4': 0.00025856593778428305}}
O       0.00000000       0.00000000       0.00000000
H       0.99296856       0.00000000       0.00000000
H      -0.23203079       0.94071159       0.00000000
O      -2.05049382      -0.34963861       2.15897138
H      -2.40379990      -0.31652743       1.24135888
H      -2.80958102       0.12836290       2.55250902
    6
i = 21 energy = {'iqa': {'H3': 0.00024623026191256114, 'H2': 0.0001438248348974991, 'H5': 0.000187962606264247, 'O1': 0.00042671744937194944, 'H6': 0.0003241754402432684, 'O4': 0.0005686124390820169}}
O       0.00000000       0.00000000       0.00000000
H       0.95073077       0.00000000       0.00000000
H      -0.01149681       0.97840302       0.00000000
O       0.27170468      -2.53727247       0.77781307
H       0.81755808      -1.74596054       0.99402385
H       0.11311870      -2.90395240       1.69062084
    6
i = 22 energy = {'iqa': {'H3': 3.2337630632151004e-05, 'H2': 3.1894885431926756e-05, 'H5': 1.0335509088688077e-05, 'O1': 3.936329068210398e-05, 'H6': 8.99541789825542e-05, 'O4': 8.451501119566274e-05}}
O       0.00000000       0.00000000       0.00000000
H       0.96161860       0.00000000       0.00000000
H      -0.16900260       0.93893363       0.00000000
O      -1.78918429      -2.17324638      -0.98399888
H      -2.42918487      -2.16507931      -1.72047767
H      -1.00160776      -2.51918579      -1.46365434
    6
i = 23 energy = {'iqa': {'H3': 5.44846682088429e-05, 'H2': 2.7686718112041042e-06, 'H5': 0.0001272665236624615, 'O1': 2.3361724828419028e-05, 'H6': 9.541059536433139e-06, 'O4': 0.00016930715274554586}}
O       0.00000000       0.00000000       0.00000000
H       0.99894035       0.00000000       0.00000000
H      -0.01903251       0.97685221       0.00000000
O      -1.24900809      -2.76003916      -0.34408982
H      -1.23310168      -2.61277611      -1.30293994
H      -2.20292583      -2.67834777      -0.16477072
    6
i = 24 energy = {'iqa': {'H3': 5.405518101525564e-05, 'H2': 8.75377714088521e-05, 'H5': 2.3369223508595827e-05, 'O1': 9.906441654550235e-05, 'H6': 0.000179686080886865, 'O4': 0.00011447204396120014}}
O       0.00000000       0.00000000       0.00000000
H       0.97556589       0.00000000       0.00000000
H      -0.21531688       0.92285096       0.00000000
O       0.65354514      -3.11218884      -0.18825015
H       1.38724293      -3.42783877       0.39731211
H       0.01669775      -2.90049560       0.50539229
    6
i = 25 energy = {'iqa': {'H3': 9.688974035704234e-05, 'H2': 8.834197736629079e-05, 'H5': 6.693621419107121e-05, 'O1': 0.00017089492069999324, 'H6': 4.916339848820561e-05, 'O4': 0.0001302115056631692}}
O       0.00000000       0.00000000       0.00000000
H       0.97393506       0.00000000       0.00000000
H      -0.26398429       0.93897828       0.00000000
O      -2.22772679      -1.90819968       0.59345326
H      -1.83570765      -2.44442136       1.28716512
H      -2.02129617      -2.33589963      -0.24933233
    6
i = 26 energy = {'iqa': {'H3': 3.917390810376231e-05, 'H2': 0.0011337586937205102, 'H5': 3.1239888254042114e-05, 'O1': 3.8338124255687944e-05, 'H6': 5.130040285972193e-05, 'O4': 1.2099236087692589e-05}}
O       0.00000000       0.00000000       0.00000000
H       0.95886892       0.00000000       0.00000000
H      -0.18998573       0.95130597       0.00000000
O       0.47711739      -0.56815605      -3.06879218
H       0.74267739      -0.26903589      -3.94644665
H       0.39210630      -1.53066142      -3.23001767
    6
i = 27 energy = {'iqa': {'H3': 2.084314380401686e-05, 'H2': 9.19713889712126e-05, 'H5': 8.392103553978014e-05, 'O1': 1.508370189640118e-05, 'H6': 0.0001394853007398722, 'O4': 0.0001640921442032095}}
O       0.00000000       0.00000000       0.00000000
H       0.97880955       0.00000000       0.00000000
H      -0.21713924       0.95155711       0.00000000
O      -1.10351488      -1.93334804       2.18761156
H      -1.94815355      -1.55102265       1.87963685
H      -1.02200922      -1.59567576       3.12078732
    6
i = 28 energy = {'iqa': {'H3': 0.0003391619312176908, 'H2': 0.0015382716770216964, 'H5': 0.00029576988869955967, 'O1': 0.0009882622350261272, 'H6': 3.265299973026492e-05, 'O4': 0.0007568040549870148}}
O       0.00000000       0.00000000       0.00000000
H       0.98671769       0.00000000       0.00000000
H      -0.20277956       0.97036934       0.00000000
O       3.03434347       0.75177723       0.78834472
H       2.09657998       0.63387664       1.04127452
H       3.54321965       0.57957901       1.61304508
    6
i = 29 energy = {'iqa': {'H3': 0.00028410847641091586, 'H2': 0.0004048807208799077, 'H5': 7.343737829274e-05, 'O1': 0.00016486910509172503, 'H6': 0.00010302442646659138, 'O4': 2.9367774217803344e-05}}
O       0.00000000       0.00000000       0.00000000
H       0.94602028       0.00000000       0.00000000
H      -0.21197299       0.95202240       0.00000000
O       1.70811259      -0.44003470       2.64027186
H       1.50167551      -0.90156578       3.45686646
H       2.20327376       0.24406124       3.05654140
    6
i = 30 energy = {'iqa': {'H3': 0.0001815343841046757, 'H2': 0.00011597861577022917, 'H5': 3.3492252997091576e-05, 'O1': 0.0004434026561312976, 'H6': 7.615562338797455e-05, 'O4': 0.00021936998679450426}}
O       0.00000000       0.00000000       0.00000000
H       0.98169490       0.00000000       0.00000000
H      -0.22419041       0.94635613       0.00000000
O       2.06550407      -2.01779827      -0.17882479
H       2.19075458      -2.94898455       0.01843996
H       2.84255025      -1.84509402      -0.74453116
    6
i = 31 energy = {'iqa': {'H3': 1.1883722693117882e-05, 'H2': 3.4883786836636954e-05, 'H5': 0.00012817821891286663, 'O1': 0.00014892601988947263, 'H6': 7.620151776738249e-05, 'O4': 0.0001560909090159157}}
O       0.00000000       0.00000000       0.00000000
H       0.97436132       0.00000000       0.00000000
H      -0.10440531       0.96240680       0.00000000
O       0.13721165      -3.05567839       0.47547343
H       0.92930776      -3.59806011       0.65020828
H      -0.35252042      -3.55457988      -0.20547512
    6
i = 32 energy = {'iqa': {'H3': 4.1916578894407586e-05, 'H2': 7.798662304075998e-05, 'H5': 0.00014822819228560435, 'O1': 0.00013686919177757773, 'H6': 5.1441908609228815e-05, 'O4': 0.00014317100517757808}}
O       0.00000000       0.00000000       0.00000000
H       0.96197322       0.00000000       0.00000000
H      -0.10538275       0.94795751       0.00000000
O       1.71442377      -1.98066197      -2.12685262
H       1.92939994      -2.30045089      -1.22606154
H       0.74079689      -1.97032420      -2.15733801
    6
i = 33 energy = {'iqa': {'H3': 4.898715994583469e-05, 'H2': 3.671137940081115e-05, 'H5': 3.1906133284742566e-05, 'O1': 5.9352816492719285e-05, 'H6': 0.0001890930981874317, 'O4': 5.073166070701518e-05}}
O       0.00000000       0.00000000       0.00000000
H       0.96163048       0.00000000       0.00000000
H      -0.22684304       0.93665439       0.00000000
O      -2.99012023      -1.53778101       1.11594019
H      -2.96472999      -0.82405132       0.46205986
H      -3.84496788      -1.91962799       0.90765925
    6
i = 34 energy = {'iqa': {'H3': 0.0001009010126686305, 'H2': 6.877573757307909e-05, 'H5': 0.00013658480104206117, 'O1': 0.00019354594577691842, 'H6': 0.0001462932249479132, 'O4': 0.00021753297272653072}}
O       0.00000000       0.00000000       0.00000000
H       0.98240825       0.00000000       0.00000000
H      -0.16762538       0.94729296       0.00000000
O      -2.50495965      -1.48465607      -1.50466269
H      -3.11039656      -1.52853606      -2.26814170
H      -3.08425655      -1.16535708      -0.79100111
    6
i = 35 energy = {'iqa': {'H3': 7.669253229769524e-05, 'H2': 0.00032239288071334027, 'H5': 0.0003021533635543805, 'O1': 0.0001554818916105205, 'H6': 0.00031098192441353367, 'O4': 0.0006893089281447828}}
O       0.00000000       0.00000000       0.00000000
H       0.96015727       0.00000000       0.00000000
H      -0.36532346       0.89950253       0.00000000
O       3.07055281      -0.33791823       1.34951910
H       3.04285616      -1.28882433       1.49918705
H       4.00926602      -0.12958279       1.30121163
    6
i = 36 energy = {'iqa': {'H3': 2.759988110656586e-05, 'H2': 5.386567478726789e-07, 'H5': 4.81341188410811e-05, 'O1': 5.338041766833612e-05, 'H6': 7.291065027226207e-06, 'O4': 2.5144074243144132e-05}}
O       0.00000000       0.00000000       0.00000000
H       0.95933032       0.00000000       0.00000000
H      -0.27331406       0.95117001       0.00000000
O      -2.09433042      -1.98542452      -1.80712164
H      -2.32573484      -2.61386982      -2.52720816
H      -2.96228730      -2.00460608      -1.39591382
    6
i = 37 energy = {'iqa': {'H3': 0.0005610200352379469, 'H2': 9.724690222867594e-06, 'H5': 6.574419446281343e-05, 'O1': 0.00018588018430421016, 'H6': 0.0002570349849327358, 'O4': 0.0002707568249036285}}
O       0.00000000       0.00000000       0.00000000
H       0.96573401       0.00000000       0.00000000
H      -0.20829408       0.94227320       0.00000000
O      -3.44635150      -0.31043646      -0.74230306
H      -3.45506127      -1.23446721      -1.07055934
H      -2.49418881      -0.25391691      -0.63266905
    6
i = 38 energy = {'iqa': {'H3': 2.8249492160459244e-05, 'H2': 3.776094378632466e-05, 'H5': 8.889570086073606e-05, 'O1': 7.155272197678642e-05, 'H6': 4.149840827749607e-06, 'O4': 0.00019156777004525338}}
O       0.00000000       0.00000000       0.00000000
H       0.97749781       0.00000000       0.00000000
H      -0.26573137       0.94102151       0.00000000
O      -0.81417830      -2.81741948       1.38066817
H      -0.08942284      -2.91220399       2.01346281
H      -0.77647216      -3.69508172       0.96457082
    6
i = 39 energy = {'iqa': {'H3': 2.2119521239150064e-05, 'H2': 9.49899248656183e-05, 'H5': 8.699603534023659e-05, 'O1': 0.0002829888617981169, 'H6': 0.00022262879254869583, 'O4': 2.984612122247654e-05}}
O       0.00000000       0.00000000       0.00000000
H       0.98359074       0.00000000       0.00000000
H       0.03222394       0.96312721       0.00000000
O      -1.20470872      -2.44141559       1.87059716
H      -1.97552007      -2.58274251       2.44132825
H      -1.48983493      -1.63476418       1.37383768
    6
i = 40 energy = {'iqa': {'H3': 7.00945084318727e-05, 'H2': 5.000423565537648e-05, 'H5': 7.750066913569942e-05, 'O1': 6.916541723001046e-05, 'H6': 9.174303647330184e-06, 'O4': 0.00017992178362646882}}
O       0.00000000       0.00000000       0.00000000
H       0.96713354       0.00000000       0.00000000
H      -0.16756916       0.95754121       0.00000000
O       0.47755909      -3.09529964      -0.69477343
H      -0.36683245      -2.64122402      -0.58326820
H       1.08826366      -2.31914283      -0.75235233
    6
i = 41 energy = {'iqa': {'H3': 2.2255338759491483e-05, 'H2': 0.00010997156136316466, 'H5': 6.761978079672382e-05, 'O1': 0.00036968645662227573, 'H6': 5.990346798290247e-05, 'O4': 0.00016556546364654423}}
O       0.00000000       0.00000000       0.00000000
H       0.97979764       0.00000000       0.00000000
H      -0.12697878       0.95974868       0.00000000
O      -2.91385959      -1.11350116      -1.15194783
H      -2.92670274      -0.40525504      -1.81985133
H      -3.83271496      -1.39365521      -1.07094303
    6
i = 42 energy = {'iqa': {'H3': 0.00024223589405331092, 'H2': 0.0006847761883895798, 'H5': 0.00017539547004408185, 'O1': 0.003140333788934413, 'H6': 0.00012300928786362908, 'O4': 0.00031082573669038993}}
O       0.00000000       0.00000000       0.00000000
H       0.96345741       0.00000000       0.00000000
H      -0.12030904       0.95438784       0.00000000
O       0.34242524      -0.37559977      -3.11526429
H       0.33480479      -0.06988977      -2.18622450
H       1.22463078      -0.78367910      -3.30512194
    6
i = 43 energy = {'iqa': {'H3': 0.0002038369491085823, 'H2': 4.94156248013744e-05, 'H5': 6.847844108709422e-05, 'O1': 0.0007767297924914374, 'H6': 3.805628863251531e-05, 'O4': 0.0002960975103292185}}
O       0.00000000       0.00000000       0.00000000
H       0.97646126       0.00000000       0.00000000
H      -0.17671467       0.96647445       0.00000000
O      -0.00475944      -2.88882603      -0.30471690
H       0.08589672      -1.91934219      -0.35683771
H      -0.68236203      -2.80950565       0.40659824
    6
i = 44 energy = {'iqa': {'H3': 7.263362105103255e-07, 'H2': 1.2119457258152888e-05, 'H5': 0.0013260507681233658, 'O1': 0.00011861868337348369, 'H6': 0.00018500461161480297, 'O4': 1.2190633853492727e-05}}
O       0.00000000       0.00000000       0.00000000
H       0.98998619       0.00000000       0.00000000
H      -0.11276177       0.96634471       0.00000000
O      -1.00573244      -3.14716584      -0.71059098
H      -0.83172291      -3.14205963       0.24619447
H      -0.09829534      -3.46361989      -0.94725850
    6
i = 45 energy = {'iqa': {'H3': 0.00021995297753396592, 'H2': 9.06313921961166e-06, 'H5': 0.00019510868133404413, 'O1': 0.00035783017050050603, 'H6': 4.218952962964373e-05, 'O4': 1.9005884297484954e-06}}
O       0.00000000       0.00000000       0.00000000
H       0.98011697       0.00000000       0.00000000
H      -0.09908576       0.97751005       0.00000000
O       1.24070147      -2.66165804      -1.11475713
H       1.31317192      -1.74392189      -1.34908140
H       0.29609042      -2.67045404      -0.89995926
    6
i = 46 energy = {'iqa': {'H3': 9.547419273847613e-05, 'H2': 8.330168541959004e-06, 'H5': 2.901803661248259e-07, 'O1': 0.00016400627949053614, 'H6': 2.715612839515602e-05, 'O4': 4.3130922094292146e-05}}
O       0.00000000       0.00000000       0.00000000
H       0.98121825       0.00000000       0.00000000
H      -0.22385422       0.94272314       0.00000000
O      -2.11225096      -1.32304852       1.99708287
H      -1.66306596      -0.67722187       2.53023877
H      -3.01864936      -1.26976437       2.29208619
    6
i = 47 energy = {'iqa': {'H3': 0.00026376540685119076, 'H2': 0.00029707461487210596, 'H5': 1.881275386600434e-05, 'O1': 0.0002899883348561616, 'H6': 2.0413992540102566e-05, 'O4': 8.375384211944947e-06}}
O       0.00000000       0.00000000       0.00000000
H       0.99229020       0.00000000       0.00000000
H      -0.09181930       0.99038028       0.00000000
O      -1.58013007      -2.04398664       1.50121802
H      -1.54633728      -1.44462658       0.75064413
H      -1.00134724      -1.49526348       2.06519160
    6
i = 48 energy = {'iqa': {'H3': 8.562016693680619e-05, 'H2': 2.4245518551402334e-05, 'H5': 0.0003795733907125398, 'O1': 9.72859555758987e-06, 'H6': 7.584495021079052e-05, 'O4': 0.00010876996938691263}}
O       0.00000000       0.00000000       0.00000000
H       0.96556262       0.00000000       0.00000000
H      -0.03696989       0.98155812       0.00000000
O      -0.71079755      -3.28353018      -0.42764063
H       0.18164031      -3.15164662      -0.09042547
H      -1.28451312      -3.29983007       0.37865061
    6
i = 49 energy = {'iqa': {'H3': 0.0001494774585503733, 'H2': 2.4263232187904382e-05, 'H5': 0.0005435534712909806, 'O1': 3.997983313297482e-06, 'H6': 6.947307264271174e-05, 'O4': 2.6376341324407804e-05}}
O       0.00000000       0.00000000       0.00000000
H       0.96857412       0.00000000       0.00000000
H      -0.06134139       0.98986795       0.00000000
O       0.49293772      -3.16029342      -0.76731946
H       0.19595029      -2.58534916      -1.49552962
H      -0.22113600      -3.22672643      -0.12405877
    6
i = 50 energy = {'iqa': {'H3': 0.00032077393027829526, 'H2': 0.0001671942648981961, 'H5': 0.00013728078970037805, 'O1': 0.00022751837937562414, 'H6': 0.0002107752838553245, 'O4': 5.791127533427698e-05}}
O       0.00000000       0.00000000       0.00000000
H       0.98002999       0.00000000       0.00000000
H      -0.21112521       0.94657266       0.00000000
O       0.03858577      -2.42858247      -2.53116744
H      -0.11887716      -3.08087035      -1.82422037
H      -0.84709336      -2.30686998      -2.95476681
    6
i = 51 energy = {'iqa': {'H3': 0.000995183378576181, 'H2': 0.002375408379995725, 'H5': 0.00028808915046224515, 'O1': 0.00105707180648551, 'H6': 0.0006029721126332155, 'O4': 0.0010898818489408768}}
O       0.00000000       0.00000000       0.00000000
H       0.97801472       0.00000000       0.00000000
H      -0.02463528       0.98752028       0.00000000
O       2.75286213       0.93032571      -1.11843461
H       2.66944280       1.90437544      -1.12812233
H       1.79728318       0.78441362      -1.15566207
    6
i = 52 energy = {'iqa': {'H3': 5.356509447940194e-05, 'H2': 1.4520156074671053e-05, 'H5': 0.00022240695504610608, 'O1': 6.708915333319965e-05, 'H6': 0.00015557220729112142, 'O4': 0.00013938123427692517}}
O       0.00000000       0.00000000       0.00000000
H       0.97457286       0.00000000       0.00000000
H      -0.14697690       0.96119560       0.00000000
O       2.54655653      -2.35560540      -0.54102127
H       1.62871375      -2.02562845      -0.51637568
H       2.72583165      -2.33364298      -1.51153049
    6
i = 53 energy = {'iqa': {'H3': 0.00022990493233981946, 'H2': 0.0003301477965216293, 'H5': 1.806496690426318e-05, 'O1': 0.0006160764298073218, 'H6': 0.0001741296755770616, 'O4': 0.00014803502995164308}}
O       0.00000000       0.00000000       0.00000000
H       0.96956422       0.00000000       0.00000000
H      -0.20573720       0.94776034       0.00000000
O      -0.76439298      -1.43012047      -2.94333027
H      -0.75031087      -2.27704056      -3.41935390
H       0.09916028      -1.09095809      -3.30368188
    6
i = 54 energy = {'iqa': {'H3': 0.0022997272739458396, 'H2': 0.000687572434200534, 'H5': 0.00011498383830749193, 'O1': 0.0008542914083022879, 'H6': 0.00024055325536426198, 'O4': 0.00036338482938447214}}
O       0.00000000       0.00000000       0.00000000
H       0.96947074       0.00000000       0.00000000
H       0.02341900       0.97995743       0.00000000
O      -0.75327387       0.22710849       3.21548819
H      -1.48308509       0.86499319       3.08331211
H      -0.58167086       0.48437319       4.13986348
    6
i = 55 energy = {'iqa': {'H3': 1.896589425093298e-05, 'H2': 7.2660522492107305e-06, 'H5': 0.00011048733166757474, 'O1': 0.00021314875985467552, 'H6': 1.4944620680967802e-05, 'O4': 9.220339603643879e-05}}
O       0.00000000       0.00000000       0.00000000
H       0.96699495       0.00000000       0.00000000
H      -0.04342709       0.98067056       0.00000000
O      -1.65004505      -2.11336339       1.97896305
H      -1.08052390      -1.55928983       1.42441991
H      -1.07918306      -2.31738029       2.70978697
    6
i = 56 energy = {'iqa': {'H3': 8.205967243934964e-05, 'H2': 6.961987562248417e-05, 'H5': 3.5476303776316165e-05, 'O1': 0.00035524601970848835, 'H6': 1.2489834376683273e-05, 'O4': 3.858863047412342e-05}}
O       0.00000000       0.00000000       0.00000000
H       0.98496919       0.00000000       0.00000000
H      -0.22608987       0.95928852       0.00000000
O      -1.00733676      -2.38463150       1.74531691
H      -1.70369289      -2.88123589       1.31218698
H      -0.72844494      -1.62172233       1.22494547
    6